      -----------------------------------------------------------      
     |                   =====================                   |     
     |                           x T B                           |     
     |                   =====================                   |     
     |                         S. Grimme                         |     
     |          Mulliken Center for Theoretical Chemistry        |     
     |                    University of Bonn                     |     
     |                  Version 6.1 (SAW190416)                  |     
      -----------------------------------------------------------      

   This program is distributed in the hope that it will be useful,
   but WITHOUT ANY WARRANTY; without even the implied warranty of
   MERCHANTABILITY or FITNESS FOR A PARTICULAR PURPOSE.
   
   FOR NON-COMMERCIAL, ACADEMIA USE ONLY.
   
   Cite this work as:
   S. Grimme, C. Bannwarth, P. Shushkov, J. Comput. Theory Chem., 2017,
   13, 1989-2009. DOI: 10.1021/acs.jctc.7b00118
   C. Bannwarth, S. Ehlert and S. Grimme., J. Comput. Theory Chem., 2019,
   just accepted. DOI: 10.1021/acs.jctc.8b01176
   
   for sTDA-xTB:
   S. Grimme and C. Bannwarth, J. Chem. Phys., 2016, 145, 054103.
   DOI: 10.1063/1.4959605
   
   in the mass-spec context:
   V. Asgeirsson, C. Bauer and S. Grimme, Chem. Sci., 2017, 8, 4879.
   DOI: 10.1039/c7sc00601b
   
   for metadynamics refer to:
   S. Grimme, J. Chem. Theory Comput. Article ASAP, 2019,
   DOI: 10.1021/acs.jctc.9b00143
   
   with help from (in alphabetical order)
   C. Bannwarth, F. Bohle, G. Brandenburg, E. Caldeweyher, M. Checinski,
   S. Dohm, S. Ehlert, S. Ehrlich, F. März, H. Neugebauer, J. Pisarek,
   P. Pracht, P. Shushkov, and S. Spicher.
   
 * started run on 2019/06/17 at 22:58:23.533     

           -------------------------------------------------
          |                Calculation Setup                |
           -------------------------------------------------

          program call               : /home/atarzia/software/xtb_190418/bin/xtb -hess xtbopt.xyz
          coordinate file            : xtbopt.xyz
          omp threads                :                     8
          number of atoms            :                    57
          number of electrons        :                   140
          charge                     :                     0
          spin                       :                   0.0
          first test random number   :      0.44961998435561


########################################################################
# WARNING! Please study the warnings concerning your input carefully
#  - the use of '-hess' is discouraged, please use '--hess' next time
########################################################################

           ------------------------------------------------- 
          |                 G F N 2 - x T B                 |
          | Geometry, Frequencies, Noncovalent interactions |
          |            JCTC 2018 parametrisation            |
           ------------------------------------------------- 
 
             k(s)              :                1.8500
             k(p)              :                2.2300
             k(d)              :                2.2300
             k(f)              :                2.0000
             kEN (H0ij)        :               -2.0000
             D4 a1             :                0.5200
             D4 a2             :                5.0000
             D4 s6             :                1.0000
             D4 s8             :                2.7000
             D4 s9             :                5.0000
             alphaj            :                2.0000

  Z AO/shell   Hii/eV     exponent
  1     Wed Apr 25 08:07:45 CEST 2018   EN: 2.200 GM2: 0.406  GM3: 0.0800  RAES: 1.40
     1s    -10.707211    1.230000
  6     Wed Apr 25 08:07:45 CEST 2018   EN: 2.550 GM2: 0.538  GM3: 0.1500  RAES: 3.00
     2s    -13.970922    2.096432
     2p    -10.063292    1.800000
  7     Wed Apr 25 08:07:45 CEST 2018   EN: 3.040 GM2: 0.461  GM3:-0.0640  RAES: 1.90
     2s    -16.686243    2.339881
     2p    -12.523956    2.014332
  8     Wed Apr 25 08:07:45 CEST 2018   EN: 3.440 GM2: 0.452  GM3:-0.0517  RAES: 1.80
     2s    -20.229985    2.439742
     2p    -15.503117    2.137023


            Z     q(EN)     CN     RAES       Cart. coordinates
     1  N   5.0   -0.64    2.99    1.92    12.94070    -0.78458    -4.63069
     2  C   4.0   -0.03    3.98    3.58    13.20497    -3.02011    -3.05665
     3  C   4.0   -0.13    3.98    3.59    12.29158    -2.46784    -0.37544
     4  C   4.0   -0.01    4.00    3.62    14.18069    -0.91374     1.18586
     5  N   5.0   -0.42    2.00    1.90    14.60662     1.51310     0.04968
     6  H   1.0    0.25    1.00    1.43    13.73120    -1.08794    -6.35114
     7  H   1.0    0.29    1.00    1.43    13.87855     0.66852    -3.79062
     8  H   1.0    0.11    0.99    1.43    12.02187    -4.50462    -3.88379
     9  H   1.0    0.10    0.99    1.43    15.16009    -3.74274    -2.96782
    10  H   1.0    0.13    0.99    1.43    10.50681    -1.44440    -0.49029
    11  H   1.0    0.08    0.99    1.43    11.96811    -4.24570     0.61782
    12  H   1.0    0.11    0.99    1.43    16.00791    -1.88582     1.18379
    13  H   1.0    0.11    0.99    1.43    13.47426    -0.79183     3.13068
    14  C   4.0    0.01    3.02    3.02    13.65496     3.52287     0.86449
    15  C   4.0   -0.12    3.99    3.60    11.97806     3.92356     3.14780
    16  C   4.0    0.02    3.02    3.02     9.39492     2.89763     2.62261
    17  H   1.0    0.12    0.99    1.43    14.08262     5.20504    -0.23185
    18  H   1.0    0.09    0.99    1.43    11.85000     5.94466     3.53461
    19  H   1.0    0.12    0.99    1.43    12.75698     2.95500     4.79391
    20  H   1.0    0.11    0.99    1.43     8.39184     3.82329     1.06389
    21  N   5.0   -0.43    2.01    1.90     8.55724     1.08353     3.89630
    22  C   4.0   -0.03    4.00    3.62     6.14625    -0.07722     3.51205
    23  C   4.0   -0.14    3.98    3.59     4.41881     0.98021     1.44881
    24  C   4.0   -0.03    4.00    3.62     1.92549    -0.47907     1.34880
    25  N   5.0   -0.41    2.00    1.90     0.45973     0.43101    -0.73324
    26  H   1.0    0.11    0.99    1.43     5.18434     0.00407     5.34613
    27  H   1.0    0.10    0.99    1.43     6.53977    -2.07687     3.13657
    28  H   1.0    0.12    0.99    1.43     5.33137     0.84141    -0.39525
    29  H   1.0    0.11    0.99    1.43     4.01231     2.97028     1.82353
    30  H   1.0    0.11    0.99    1.43     2.32686    -2.47235     0.95993
    31  H   1.0    0.09    0.99    1.43     0.96285    -0.36713     3.18908
    32  C   4.0    0.02    3.02    3.02    -1.82230     1.04514    -0.61181
    33  C   4.0   -0.13    3.98    3.59    -3.60870     0.98415     1.61531
    34  C   4.0    0.02    3.02    3.02    -4.73098    -1.63572     1.77326
    35  H   1.0    0.12    0.99    1.43    -2.66480     1.65196    -2.38209
    36  H   1.0    0.10    0.99    1.43    -5.08328     2.39538     1.33611
    37  H   1.0    0.10    0.99    1.43    -2.60242     1.38886     3.36737
    38  H   1.0    0.12    0.99    1.43    -3.68781    -2.95442     2.95029
    39  N   5.0   -0.41    2.00    1.90    -6.63689    -2.53106     0.69288
    40  C   4.0   -0.03    4.00    3.62    -8.24391    -1.15254    -0.98973
    41  C   4.0   -0.13    3.99    3.60   -10.98293    -1.43145    -0.10909
    42  C   4.0   -0.03    4.02    3.65   -12.83490    -0.28561    -2.00908
    43  N   5.0   -0.41    2.01    1.90   -15.33065    -0.33363    -0.96939
    44  H   1.0    0.11    0.99    1.43    -8.04067    -2.04094    -2.84868
    45  H   1.0    0.09    0.99    1.43    -7.76356     0.86038    -1.18577
    46  H   1.0    0.13    0.99    1.43   -11.22597    -0.49264     1.71033
    47  H   1.0    0.13    0.99    1.43   -11.39885    -3.43350     0.15025
    48  H   1.0    0.10    0.99    1.43   -12.70918    -1.28864    -3.83165
    49  H   1.0    0.11    0.99    1.43   -12.34962     1.70302    -2.31307
    50  C   4.0    0.05    3.03    3.02   -17.07072    -1.51685    -2.05506
    51  C   4.0   -0.10    3.99    3.60   -19.67032    -1.56339    -0.96065
    52  C   4.0    0.06    2.99    3.02   -21.68085    -0.81666    -2.83013
    53  O   6.0   -0.39    1.00    1.80   -21.38369    -0.45041    -5.04057
    54  H   1.0    0.13    0.99    1.43   -16.82664    -2.53502    -3.84814
    55  H   1.0    0.10    0.99    1.43   -20.12977    -3.47963    -0.32553
    56  H   1.0    0.12    0.99    1.43   -19.76522    -0.32107     0.68385
    57  H   1.0    0.12    0.99    1.43   -23.57272    -0.63822    -1.94617

           ------------------------------------------------- 
          |        Self-Consistent Charge Iterations        |
           ------------------------------------------------- 
q/qsh data taken from xtbrestart
CAMM data taken from xtbrestart

          ...................................................
          :                      SETUP                      :
          :.................................................:
          :  # basis functions                 132          :
          :  # atomic orbitals                 132          :
          :  # shells                           82          :
          :  # electrons                       140          :
          :  max. iterations                   250          :
          :  Hamiltonian                  GFN2-xTB          :
          :  restarted?                       true          :
          :  GBSA solvation                  false          :
          :  PC potential                    false          :
          :  electronic temp.          300.0000000     K    :
          :  accuracy                    1.0000000          :
          :  -> integral cutoff          0.2500000E+02      :
          :  -> integral neglect         0.1000000E-07      :
          :  -> SCF convergence          0.1000000E-05 Eh   :
          :  -> wf. convergence          0.1000000E-03 e    :
          :  Broyden damping             0.4000000          :
          ...................................................

 iter      E             dE          RMSdq      gap      omega  full diag
   1    -77.3772480 -0.773772E+02  0.140E-06    2.17       0.0  T
   2    -77.3772480  0.426326E-13  0.837E-07    2.17   15828.2  T
   3    -77.3772480  0.142109E-13  0.487E-07    2.17   27204.4  T

   *** convergence criteria satisfied after 3 iterations ***

         #    Occupation            Energy/Eh            Energy/eV
      -------------------------------------------------------------
         1        2.0000           -0.7305781             -19.8800
       ...           ...                  ...                  ...
        64        2.0000           -0.4130780             -11.2404
        65        2.0000           -0.3792716             -10.3205
        66        2.0000           -0.3742532             -10.1839
        67        2.0000           -0.3701470             -10.0722
        68        2.0000           -0.3680412             -10.0149
        69        2.0000           -0.3674363              -9.9984
        70        2.0000           -0.3515462              -9.5661 (HOMO)
        71                         -0.2718033              -7.3961 (LUMO)
        72                         -0.2479064              -6.7459
        73                         -0.2433789              -6.6227
        74                         -0.2394420              -6.5155
        75                         -0.2227694              -6.0619
       ...                                ...                  ...
       132                          0.6336033              17.2412
      -------------------------------------------------------------
                  HL-Gap            0.0797429 Eh            2.1699 eV
             Fermi-level           -0.3116748 Eh           -8.4811 eV

 SCC (total)                   0 d,  0 h,  0 min,  0.027 sec
 SCC setup                      ...        0 min,  0.001 sec (  2.970%)
 Dispersion                     ...        0 min,  0.001 sec (  3.777%)
 integral evaluation            ...        0 min,  0.003 sec ( 12.085%)
 zeroth order Hamiltonian       ...        0 min,  0.000 sec (  0.911%)
 iterations                     ...        0 min,  0.012 sec ( 43.535%)
 molecular gradient             ...        0 min,  0.009 sec ( 32.086%)
 printout                       ...        0 min,  0.001 sec (  4.465%)

         :::::::::::::::::::::::::::::::::::::::::::::::::::::
         ::                     SUMMARY                     ::
         :::::::::::::::::::::::::::::::::::::::::::::::::::::
         :: total energy              -76.323188311837 Eh   ::
         :: gradient norm               0.000048823569 Eh/α ::
         :: HOMO-LUMO gap               2.169914016584 eV   ::
         ::.................................................::
         :: SCC energy                -77.377247958147 Eh   ::
         :: -> isotropic ES             0.070584709962 Eh   ::
         :: -> anisotropic ES           0.010935367015 Eh   ::
         :: -> anisotropic XC           0.073962643505 Eh   ::
         :: -> dispersion              -0.046624398857 Eh   ::
         :: repulsion energy            1.054136937195 Eh   ::
         :: add. restraining            0.000000000000 Eh   ::
         :::::::::::::::::::::::::::::::::::::::::::::::::::::

           ------------------------------------------------- 
          |                Numerical Hessian                |
           ------------------------------------------------- 
step length          :   0.00500
SCC accuracy         :   0.30000
Hessian scale factor :   1.00000
frozen atoms in %    :   0.00000    0
RMS gradient         :   0.00005
estimated CPU  time      1.51 min
estimated wall time      0.19 min

writing file <hessian>.

 projected vibrational frequencies (cm-1)
eigval :       -0.00    -0.00     0.00     0.00     0.00     0.00
eigval :        2.93     7.16     9.99    13.28    17.23    21.94
eigval :       25.18    32.49    43.17    53.79    56.81    68.99
eigval :       73.16    82.13    84.81    99.50   108.70   111.38
eigval :      142.18   146.85   175.72   190.38   205.29   229.83
eigval :      242.85   251.96   281.39   283.88   295.98   310.92
eigval :      322.62   344.52   361.61   367.22   384.87   422.02
eigval :      440.56   499.64   508.19   522.54   551.47   578.47
eigval :      603.28   606.42   635.94   673.35   713.33   770.62
eigval :      785.53   818.46   834.27   840.81   853.73   865.85
eigval :      876.21   888.31   894.59   901.26   907.05   941.82
eigval :      947.98   951.35   952.66   959.57   974.27   986.86
eigval :     1013.48  1021.70  1038.77  1041.33  1056.10  1065.43
eigval :     1067.97  1074.06  1079.15  1082.84  1087.10  1106.08
eigval :     1109.94  1111.64  1119.43  1123.42  1134.23  1145.88
eigval :     1153.22  1155.18  1158.01  1168.00  1178.86  1192.58
eigval :     1213.20  1233.85  1235.34  1242.96  1247.80  1248.26
eigval :     1252.70  1253.31  1260.26  1267.08  1280.28  1314.27
eigval :     1316.00  1317.92  1330.69  1331.00  1333.01  1340.74
eigval :     1341.97  1346.33  1350.62  1356.74  1373.62  1378.21
eigval :     1402.28  1446.54  1449.61  1454.18  1460.77  1465.75
eigval :     1466.32  1469.06  1480.20  1489.47  1489.49  1495.76
eigval :     1552.20  1729.76  1737.41  1761.18  1764.79  1768.34
eigval :     1796.44  2748.06  2810.05  2833.24  2850.66  2852.90
eigval :     2860.05  2868.69  2905.77  2909.07  2932.37  2932.85
eigval :     2933.49  2934.21  2936.47  2938.02  2940.20  2971.16
eigval :     2982.15  2983.83  2987.45  2989.03  2991.81  2992.93
eigval :     2994.95  2995.59  3002.24  3003.05  3003.70  3006.08
eigval :     3009.60  3352.09  3405.37
           -------------------------------------------------
          |                Property Printout                |
           -------------------------------------------------

    * Orbital Energies and Occupations

         #    Occupation            Energy/Eh            Energy/eV
      -------------------------------------------------------------
         1        2.0000           -0.7305781             -19.8800
       ...           ...                  ...                  ...
        58        2.0000           -0.4363425             -11.8735
        59        2.0000           -0.4336915             -11.8013
        60        2.0000           -0.4328673             -11.7789
        61        2.0000           -0.4295216             -11.6879
        62        2.0000           -0.4236058             -11.5269
        63        2.0000           -0.4194184             -11.4130
        64        2.0000           -0.4130779             -11.2404
        65        2.0000           -0.3792716             -10.3205
        66        2.0000           -0.3742532             -10.1839
        67        2.0000           -0.3701470             -10.0722
        68        2.0000           -0.3680412             -10.0149
        69        2.0000           -0.3674363              -9.9985
        70        2.0000           -0.3515462              -9.5661 (HOMO)
        71                         -0.2718033              -7.3961 (LUMO)
        72                         -0.2479064              -6.7459
        73                         -0.2433789              -6.6227
        74                         -0.2394420              -6.5155
        75                         -0.2227694              -6.0619
        76                         -0.2217440              -6.0340
        77                          0.0363068               0.9880
        78                          0.0374874               1.0201
        79                          0.0648836               1.7656
        80                          0.0703627               1.9147
        81                          0.0794248               2.1613
       ...                                ...                  ...
       132                          0.6336035              17.2412
      -------------------------------------------------------------
                  HL-Gap            0.0797429 Eh            2.1699 eV
             Fermi-level           -0.3116748 Eh           -8.4811 eV

   #   Z        covCN         q      C6AA      α(0)
   1   7 N      2.630    -0.352    29.068     8.007
   2   6 C      3.730     0.027    20.220     6.419
   3   6 C      3.804    -0.059    21.624     6.620
   4   6 C      3.755     0.018    20.327     6.429
   5   7 N      1.823    -0.222    26.683     7.654
   6   1 H      0.860     0.131     1.538     1.943
   7   1 H      0.860     0.157     1.352     1.821
   8   1 H      0.924     0.030     2.588     2.516
   9   1 H      0.923     0.006     2.960     2.691
  10   1 H      0.924     0.049     2.330     2.387
  11   1 H      0.924     0.035     2.521     2.483
  12   1 H      0.924     0.042     2.417     2.431
  13   1 H      0.924     0.027     2.634     2.538
  14   6 C      2.843     0.074    26.338     8.411
  15   6 C      3.811    -0.076    21.952     6.669
  16   6 C      2.840     0.087    26.063     8.366
  17   1 H      0.925     0.039     2.457     2.451
  18   1 H      0.924     0.048     2.340     2.392
  19   1 H      0.924     0.066     2.125     2.280
  20   1 H      0.924     0.003     3.000     2.708
  21   7 N      1.827    -0.234    26.961     7.694
  22   6 C      3.755     0.012    20.422     6.444
  23   6 C      3.804    -0.066    21.757     6.641
  24   6 C      3.755     0.023    20.238     6.415
  25   7 N      1.825    -0.225    26.754     7.664
  26   1 H      0.924     0.047     2.363     2.404
  27   1 H      0.924     0.050     2.314     2.379
  28   1 H      0.924     0.051     2.314     2.379
  29   1 H      0.924     0.034     2.534     2.489
  30   1 H      0.924     0.047     2.361     2.403
  31   1 H      0.923     0.011     2.882     2.655
  32   6 C      2.842     0.074    26.348     8.412
  33   6 C      3.804    -0.078    21.981     6.675
  34   6 C      2.843     0.074    26.337     8.411
  35   1 H      0.925     0.041     2.437     2.441
  36   1 H      0.925     0.046     2.376     2.410
  37   1 H      0.924     0.045     2.383     2.414
  38   1 H      0.925     0.041     2.438     2.442
  39   7 N      1.825    -0.226    26.769     7.667
  40   6 C      3.754     0.022    20.253     6.417
  41   6 C      3.808    -0.060    21.650     6.624
  42   6 C      3.769     0.020    20.275     6.417
  43   7 N      1.831    -0.224    26.726     7.661
  44   1 H      0.924     0.048     2.341     2.393
  45   1 H      0.923     0.013     2.837     2.634
  46   1 H      0.924     0.051     2.303     2.373
  47   1 H      0.924     0.052     2.293     2.368
  48   1 H      0.923     0.012     2.855     2.643
  49   1 H      0.924     0.048     2.350     2.397
  50   6 C      2.852     0.088    26.042     8.364
  51   6 C      3.810    -0.093    22.263     6.716
  52   6 C      2.758     0.220    23.369     7.916
  53   8 O      0.856    -0.312    19.992     5.995
  54   1 H      0.923     0.018     2.756     2.596
  55   1 H      0.924     0.087     1.913     2.163
  56   1 H      0.924     0.089     1.887     2.148
  57   1 H      0.922     0.022     2.698     2.569

 Mol. C6AA /au·bohr⁶  :      29044.373572
 Mol. C8AA /au·bohr⁸  :     636057.991414
 Mol. α(0) /au        :        258.048791


Wiberg/Mayer (AO) data.
largest (>0.10) Wiberg bond orders for each atom
          total WBO             WBO to atom ...
     1  N   2.996        C    2 1.028    H    6 0.969    H    7 0.945
     2  C   3.991        N    1 1.028    C    3 1.007    H    8 0.974    H    9 0.968
     3  C   3.996        C    2 1.007    C    4 0.979    H   11 0.975    H   10 0.974
     4  C   3.986        N    5 1.024    C    3 0.979    H   12 0.964    H   13 0.963
     5  N   3.113        C   14 1.919    C    4 1.024
     6  H   0.983        N    1 0.969
     7  H   0.975        N    1 0.945
     8  H   0.999        C    2 0.974
     9  H   1.000        C    2 0.968
    10  H   0.998        C    3 0.974
    11  H   0.999        C    3 0.975
    12  H   0.998        C    4 0.964
    13  H   0.999        C    4 0.963
    14  C   3.973        N    5 1.919    C   15 0.974    H   17 0.957
    15  C   3.997        C   16 1.004    C   14 0.974    H   18 0.961    H   19 0.956
    16  C   3.975        N   21 1.902    C   15 1.004    H   20 0.941
    17  H   0.998        C   14 0.957
    18  H   0.998        C   15 0.961
    19  H   0.995        C   15 0.956
    20  H   1.000        C   16 0.941
    21  N   3.091        C   16 1.902    C   22 1.033
    22  C   3.987        N   21 1.033    C   23 0.993    H   26 0.954    H   27 0.951
    23  C   3.995        C   22 0.993    C   24 0.989    H   29 0.977    H   28 0.975
    24  C   3.988        N   25 1.029    C   23 0.989    H   31 0.959    H   30 0.952
    25  N   3.113        C   32 1.912    C   24 1.029
    26  H   0.997        C   22 0.954
    27  H   0.997        C   22 0.951
    28  H   0.997        C   23 0.975
    29  H   0.999        C   23 0.977
    30  H   0.998        C   24 0.952
    31  H   1.000        C   24 0.959
    32  C   3.971        N   25 1.912    C   33 0.974    H   35 0.955
    33  C   3.998        C   34 0.975    C   32 0.974    H   36 0.961    H   37 0.960
    34  C   3.971        N   39 1.910    C   33 0.975    H   38 0.955
    35  H   0.998        C   32 0.955
    36  H   0.998        C   33 0.961
    37  H   0.998        C   33 0.960
    38  H   0.998        C   34 0.955
    39  N   3.111        C   34 1.910    C   40 1.029
    40  C   3.988        N   39 1.029    C   41 0.988    H   45 0.960    H   44 0.952
    41  C   3.992        C   40 0.988    C   42 0.986    H   46 0.977    H   47 0.976
    42  C   3.986        N   43 1.029    C   41 0.986    H   48 0.964    H   49 0.956
    43  N   3.083        C   50 1.920    C   42 1.029
    44  H   0.998        C   40 0.952
    45  H   1.000        C   40 0.960
    46  H   0.997        C   41 0.977
    47  H   0.997        C   41 0.976
    48  H   1.000        C   42 0.964
    49  H   0.998        C   42 0.956
    50  C   3.970        N   43 1.920    C   51 1.021    H   54 0.938
    51  C   3.996        C   50 1.021    C   52 0.999    H   56 0.945    H   55 0.920
    52  C   3.919        O   53 1.935    C   51 0.999    H   57 0.929
    53  O   2.107        C   52 1.935
    54  H   1.000        C   50 0.938
    55  H   0.992        C   51 0.920
    56  H   0.992        C   51 0.945
    57  H   0.999        C   52 0.929

molecular dipole:
                 x           y           z       tot (Debye)
 q only:        0.041      -0.064       1.209
   full:       -0.174       0.224       1.354       3.517
molecular quadrupole (traceless):
                xx          xy          yy          xz          yz          zz
 q only:        3.746       8.952       4.757     -23.734       0.600      -8.503
  q+dip:        4.992      11.616       6.936     -22.340       4.353     -11.927
   full:        5.134      12.073       7.577     -21.996       4.439     -12.711

           -------------------------------------------------
          |               Frequency Printout                |
           -------------------------------------------------
 projected vibrational frequencies (cm-1)
eigval :       -0.00    -0.00     0.00     0.00     0.00     0.00
eigval :        2.93     7.16     9.99    13.28    17.23    21.94
eigval :       25.18    32.49    43.17    53.79    56.81    68.99
eigval :       73.16    82.13    84.81    99.50   108.70   111.38
eigval :      142.18   146.85   175.72   190.38   205.29   229.83
eigval :      242.85   251.96   281.39   283.88   295.98   310.92
eigval :      322.62   344.52   361.61   367.22   384.87   422.02
eigval :      440.56   499.64   508.19   522.54   551.47   578.47
eigval :      603.28   606.42   635.94   673.35   713.33   770.62
eigval :      785.53   818.46   834.27   840.81   853.73   865.85
eigval :      876.21   888.31   894.59   901.26   907.05   941.82
eigval :      947.98   951.35   952.66   959.57   974.27   986.86
eigval :     1013.48  1021.70  1038.77  1041.33  1056.10  1065.43
eigval :     1067.97  1074.06  1079.15  1082.84  1087.10  1106.08
eigval :     1109.94  1111.64  1119.43  1123.42  1134.23  1145.88
eigval :     1153.22  1155.18  1158.01  1168.00  1178.86  1192.58
eigval :     1213.20  1233.85  1235.34  1242.96  1247.80  1248.26
eigval :     1252.70  1253.31  1260.26  1267.08  1280.28  1314.27
eigval :     1316.00  1317.92  1330.69  1331.00  1333.01  1340.74
eigval :     1341.97  1346.33  1350.62  1356.74  1373.62  1378.21
eigval :     1402.28  1446.54  1449.61  1454.18  1460.77  1465.75
eigval :     1466.32  1469.06  1480.20  1489.47  1489.49  1495.76
eigval :     1552.20  1729.76  1737.41  1761.18  1764.79  1768.34
eigval :     1796.44  2748.06  2810.05  2833.24  2850.66  2852.90
eigval :     2860.05  2868.69  2905.77  2909.07  2932.37  2932.85
eigval :     2933.49  2934.21  2936.47  2938.02  2940.20  2971.16
eigval :     2982.15  2983.83  2987.45  2989.03  2991.81  2992.93
eigval :     2994.95  2995.59  3002.24  3003.05  3003.70  3006.08
eigval :     3009.60  3352.09  3405.37
 reduced masses (amu)
   1: 11.50   2: 11.50   3: 11.36   4: 11.47   5: 11.76   6: 12.14   7: 11.48   8: 11.79
   9: 11.13  10: 11.44  11: 10.94  12: 11.92  13: 10.57  14:  9.83  15: 11.35  16: 11.25
  17: 10.14  18:  9.77  19:  9.13  20:  9.37  21:  9.58  22:  9.10  23:  8.10  24:  7.91
  25: 10.92  26:  9.96  27:  8.78  28:  9.62  29:  9.33  30: 10.26  31:  9.87  32:  9.28
  33:  8.75  34:  9.15  35: 10.01  36:  4.30  37:  9.58  38:  9.37  39:  9.63  40:  8.27
  41:  8.63  42: 10.40  43:  7.77  44: 10.65  45: 10.22  46:  9.66  47:  9.48  48:  8.00
  49:  9.62  50:  9.37  51: 10.09  52: 10.17  53:  5.28  54:  2.29  55:  2.21  56:  3.97
  57:  7.14  58:  4.05  59:  5.15  60:  4.62  61:  4.92  62:  5.10  63:  4.34  64:  4.17
  65:  5.10  66:  8.43  67:  8.19  68:  8.55  69:  7.15  70:  7.11  71:  7.07  72:  7.23
  73:  8.78  74:  8.68  75:  8.96  76:  9.46  77:  9.53  78:  9.55  79:  7.87  80:  8.78
  81:  8.43  82:  8.30  83:  8.81  84:  6.48  85:  5.58  86:  8.65  87:  7.29  88:  8.29
  89:  3.82  90:  6.26  91:  5.81  92:  4.51  93:  5.96  94:  4.00  95:  5.38  96:  3.86
  97:  4.09  98:  3.26  99:  4.27 100:  3.24 101:  2.68 102:  3.58 103:  2.45 104:  2.95
 105:  3.91 106:  2.44 107:  3.00 108:  3.56 109:  3.97 110:  3.90 111:  3.96 112:  4.33
 113:  4.31 114:  3.24 115:  3.21 116:  3.60 117:  5.03 118:  4.05 119:  4.56 120:  2.52
 121:  2.70 122:  2.11 123:  2.03 124:  1.92 125:  1.92 126:  1.94 127:  1.94 128:  1.98
 129:  1.96 130:  1.90 131:  1.89 132:  1.88 133:  2.05 134: 12.77 135: 12.64 136: 12.68
 137: 12.71 138: 12.74 139: 13.45 140:  1.69 141:  1.75 142:  1.74 143:  1.71 144:  1.76
 145:  1.77 146:  1.72 147:  1.82 148:  1.93 149:  1.78 150:  1.60 151:  1.63 152:  1.64
 153:  1.50 154:  1.66 155:  1.60 156:  1.85 157:  1.80 158:  1.80 159:  1.88 160:  1.61
 161:  1.70 162:  1.98 163:  1.64 164:  1.53 165:  1.84 166:  1.74 167:  1.51 168:  1.69
 169:  1.89 170:  1.60 171:  1.99
 IR intensities (amu)
   1:  0.09   2:  0.06   3:  0.17   4:  0.18   5:  0.08   6:  0.08   7:  0.09   8:  0.16
   9:  0.09  10:  0.11  11:  0.04  12:  0.23  13:  0.24  14:  0.13  15:  0.11  16:  0.18
  17:  0.13  18:  0.24  19:  0.32  20:  0.20  21:  0.14  22:  0.12  23:  0.26  24:  0.29
  25:  0.21  26:  0.07  27:  0.21  28:  0.22  29:  0.34  30:  0.35  31:  0.26  32:  0.19
  33:  0.14  34:  0.16  35:  0.17  36:  0.13  37:  0.23  38:  0.27  39:  0.43  40:  0.12
  41:  0.12  42:  0.12  43:  0.15  44:  0.15  45:  0.46  46:  0.21  47:  0.42  48:  0.43
  49:  0.13  50:  0.43  51:  0.36  52:  0.54  53:  0.28  54:  0.10  55:  0.08  56:  0.24
  57:  0.14  58:  0.25  59:  0.25  60:  0.25  61:  0.11  62:  0.27  63:  0.06  64:  0.12
  65:  0.11  66:  0.22  67:  0.26  68:  0.65  69:  0.30  70:  0.30  71:  0.27  72:  0.57
  73:  0.31  74:  0.17  75:  0.72  76:  1.40  77:  1.17  78:  0.37  79:  0.80  80:  0.79
  81:  0.40  82:  0.44  83:  0.55  84:  0.65  85:  0.39  86:  0.27  87:  0.64  88:  0.42
  89:  0.05  90:  0.59  91:  0.57  92:  0.44  93:  0.54  94:  0.41  95:  0.53  96:  0.30
  97:  0.71  98:  0.20  99:  0.58 100:  0.14 101:  0.21 102:  0.43 103:  0.12 104:  0.42
 105:  0.51 106:  0.14 107:  0.22 108:  0.28 109:  0.16 110:  0.11 111:  0.41 112:  0.59
 113:  0.14 114:  0.38 115:  0.65 116:  0.36 117:  0.22 118:  0.49 119:  0.28 120:  0.27
 121:  0.27 122:  0.13 123:  0.04 124:  0.08 125:  0.08 126:  0.08 127:  0.10 128:  0.06
 129:  0.06 130:  0.01 131:  0.11 132:  0.05 133:  0.31 134:  2.44 135:  1.30 136:  0.73
 137:  1.00 138:  0.69 139:  2.03 140:  0.57 141:  0.41 142:  0.26 143:  0.46 144:  0.32
 145:  0.32 146:  0.41 147:  0.28 148:  0.19 149:  0.06 150:  0.06 151:  0.18 152:  0.28
 153:  0.24 154:  0.21 155:  0.25 156:  0.27 157:  0.11 158:  0.25 159:  0.11 160:  0.15
 161:  0.06 162:  0.25 163:  0.15 164:  0.13 165:  0.35 166:  0.16 167:  0.18 168:  0.23
 169:  0.40 170:  0.15 171:  0.04
 Raman intensities (amu)
   1:  0.00   2:  0.00   3:  0.00   4:  0.00   5:  0.00   6:  0.00   7:  0.00   8:  0.00
   9:  0.00  10:  0.00  11:  0.00  12:  0.00  13:  0.00  14:  0.00  15:  0.00  16:  0.00
  17:  0.00  18:  0.00  19:  0.00  20:  0.00  21:  0.00  22:  0.00  23:  0.00  24:  0.00
  25:  0.00  26:  0.00  27:  0.00  28:  0.00  29:  0.00  30:  0.00  31:  0.00  32:  0.00
  33:  0.00  34:  0.00  35:  0.00  36:  0.00  37:  0.00  38:  0.00  39:  0.00  40:  0.00
  41:  0.00  42:  0.00  43:  0.00  44:  0.00  45:  0.00  46:  0.00  47:  0.00  48:  0.00
  49:  0.00  50:  0.00  51:  0.00  52:  0.00  53:  0.00  54:  0.00  55:  0.00  56:  0.00
  57:  0.00  58:  0.00  59:  0.00  60:  0.00  61:  0.00  62:  0.00  63:  0.00  64:  0.00
  65:  0.00  66:  0.00  67:  0.00  68:  0.00  69:  0.00  70:  0.00  71:  0.00  72:  0.00
  73:  0.00  74:  0.00  75:  0.00  76:  0.00  77:  0.00  78:  0.00  79:  0.00  80:  0.00
  81:  0.00  82:  0.00  83:  0.00  84:  0.00  85:  0.00  86:  0.00  87:  0.00  88:  0.00
  89:  0.00  90:  0.00  91:  0.00  92:  0.00  93:  0.00  94:  0.00  95:  0.00  96:  0.00
  97:  0.00  98:  0.00  99:  0.00 100:  0.00 101:  0.00 102:  0.00 103:  0.00 104:  0.00
 105:  0.00 106:  0.00 107:  0.00 108:  0.00 109:  0.00 110:  0.00 111:  0.00 112:  0.00
 113:  0.00 114:  0.00 115:  0.00 116:  0.00 117:  0.00 118:  0.00 119:  0.00 120:  0.00
 121:  0.00 122:  0.00 123:  0.00 124:  0.00 125:  0.00 126:  0.00 127:  0.00 128:  0.00
 129:  0.00 130:  0.00 131:  0.00 132:  0.00 133:  0.00 134:  0.00 135:  0.00 136:  0.00
 137:  0.00 138:  0.00 139:  0.00 140:  0.00 141:  0.00 142:  0.00 143:  0.00 144:  0.00
 145:  0.00 146:  0.00 147:  0.00 148:  0.00 149:  0.00 150:  0.00 151:  0.00 152:  0.00
 153:  0.00 154:  0.00 155:  0.00 156:  0.00 157:  0.00 158:  0.00 159:  0.00 160:  0.00
 161:  0.00 162:  0.00 163:  0.00 164:  0.00 165:  0.00 166:  0.00 167:  0.00 168:  0.00
 169:  0.00 170:  0.00 171:  0.00
 output can be read by thermo (or use thermo option).
 writing <g98.out> molden fake output.
 recommended (thermochemical) frequency scaling factor: 1.0
           -------------------------------------------------
          |             Thermodynamic Functions             |
           -------------------------------------------------

          ...................................................
          :                      SETUP                      :
          :.................................................:
          :  # frequencies                         165      :
          :  # imaginary freq.                       0      :
          :  linear?                             false      :
          :  only rotor calc.                    false      :
          :  symmetry                               C1      :
          :  rotational number                       1      :
          :  scaling factor                  1.0000000      :
          :  rotor cutoff                   50.0000000 cm⁻¹ :
          :  imag. cutoff                  -20.0000000 cm⁻¹ :
          :.................................................:

    mode    ω/cm⁻¹     T·S(HO)/kcal·mol⁻¹    T·S(FR)/kcal·mol⁻¹   T·S(vib)
   ------------------------------------------------------------------------
       1      2.93    -3.11584 (  0.00%)    -1.89687 (100.00%)    -1.89688
       2      7.16    -2.58615 (  0.04%)    -1.63211 ( 99.96%)    -1.63251
       3      9.99    -2.38936 (  0.16%)    -1.53372 ( 99.84%)    -1.53508
       4     13.28    -2.22047 (  0.50%)    -1.44926 ( 99.50%)    -1.45308
       5     17.23    -2.06615 (  1.39%)    -1.37208 ( 98.61%)    -1.38174
       6     21.94    -1.92327 (  3.57%)    -1.30059 ( 96.43%)    -1.32284
       7     25.18    -1.84175 (  6.04%)    -1.25979 ( 93.96%)    -1.29494
       8     32.49    -1.69090 ( 15.13%)    -1.18425 ( 84.87%)    -1.26091
       9     43.17    -1.52298 ( 35.72%)    -1.10006 ( 64.28%)    -1.25112
      10     53.79    -1.39326 ( 57.25%)    -1.03491 ( 42.75%)    -1.24007
      11     56.81    -1.36109 ( 62.49%)    -1.01873 ( 37.51%)    -1.23268
      12     68.99    -1.24684 ( 78.38%)    -0.96117 ( 21.62%)    -1.18507
      13     73.16    -1.21239 ( 82.09%)    -0.94377 ( 17.91%)    -1.16429
      14     82.13    -1.14472 ( 87.92%)    -0.90954 ( 12.08%)    -1.11631
      15     84.81    -1.12591 ( 89.22%)    -0.90001 ( 10.78%)    -1.10156
      16     99.50    -1.03284 ( 94.00%)    -0.85270 (  6.00%)    -1.02204
      17    108.70    -0.98153 ( 95.71%)    -0.82650 (  4.29%)    -0.97488
      18    111.38    -0.96740 ( 96.10%)    -0.81927 (  3.90%)    -0.96162
      19    142.18    -0.82718 ( 98.49%)    -0.74696 (  1.51%)    -0.82598
      20    146.85    -0.80878 ( 98.67%)    -0.73738 (  1.33%)    -0.80783
      21    175.72    -0.70764 ( 99.35%)    -0.68421 (  0.65%)    -0.70748
      22    190.38    -0.66312 ( 99.53%)    -0.66047 (  0.47%)    -0.66311
      23    205.29    -0.62168 ( 99.65%)    -0.63813 (  0.35%)    -0.62174
      24    229.83    -0.56060 ( 99.78%)    -0.60468 (  0.22%)    -0.56070
      25    242.85    -0.53127 ( 99.82%)    -0.58836 (  0.18%)    -0.53138
      26    251.96    -0.51187 ( 99.85%)    -0.57745 (  0.15%)    -0.51197
      27    281.39    -0.45474 ( 99.90%)    -0.54472 (  0.10%)    -0.45483
      28    283.88    -0.45025 ( 99.90%)    -0.54211 (  0.10%)    -0.45034
      29    295.98    -0.42920 ( 99.92%)    -0.52975 (  0.08%)    -0.42928
   ------------------------------------------------------------------------

   temp. (K)  partition function   enthalpy   heat capacity  entropy
                                   cal/mol     cal/K/mol   cal/K/mol   J/K/mol
 298.15  VIB  0.157E+19            17173.601     99.559    118.071
         ROT  0.321E+08              888.752      2.981     37.329
         INT  0.505E+26            18062.353    102.540    155.401
         TR   0.629E+28             1481.254      4.968     43.420
         TOT                       19543.6070   107.5084   198.8203   831.8642

   temp. (K)  partition function   enthalpy   heat capacity  entropy
                                   cal/mol     cal/K/mol   cal/K/mol   J/K/mol
 298.15  VIB  0.157E+19            17173.601     99.559    118.071
         ROT  0.321E+08              888.752      2.981     37.329
         INT  0.505E+26            18062.353    102.540    155.401
         TR   0.629E+28             1481.254      4.968     43.420
         TOT                       19543.6070   107.5084   198.8203   831.8642

       T/K    H(0)-H(T)+PV         H(T)/Eh          T*S/Eh         G(T)/Eh
   ------------------------------------------------------------------------
    298.15    0.311447E-01    0.512623E+00    0.944659E-01    0.418157E+00
    298.15    0.311447E-01    0.512623E+00    0.944659E-01    0.418157E+00 (used)
   ------------------------------------------------------------------------

         :::::::::::::::::::::::::::::::::::::::::::::::::::::
         ::                  THERMODYNAMIC                  ::
         :::::::::::::::::::::::::::::::::::::::::::::::::::::
         :: total free energy         -75.905031656056 Eh   ::
         ::.................................................::
         :: total energy              -76.323188311664 Eh   ::
         :: zero point energy           0.481477883833 Eh   ::
         :: G(RRHO) contrib.           -0.063321228225 Eh   ::
         :::::::::::::::::::::::::::::::::::::::::::::::::::::
 
 normal mode %tage of torsion character
   1:  0.00   2:  0.00   3:  0.00   4:  0.00   5:  0.00   6:  0.00   7:  0.29   8:  0.43
   9:  0.43  10:  0.36  11:  0.32  12:  0.35  13:  0.53  14:  0.34  15:  0.43  16:  0.45
  17:  0.59  18:  0.70  19:  0.53  20:  0.71  21:  0.53  22:  0.71  23:  0.76  24:  0.79
  25:  0.79  26:  0.65  27:  0.53  28:  0.84  29:  0.83  30:  0.70  31:  0.79  32:  0.74
  33:  0.54  34:  0.45  35:  0.46  36:  0.66  37:  0.26  38:  0.43  39:  0.44  40:  0.57
  41:  0.52  42:  0.51  43:  0.54  44:  0.87  45:  0.77  46:  0.28  47:  0.75  48:  0.20
  49:  0.48  50:  0.20  51:  0.28  52:  0.13  53:  0.53  54:  0.48  55:  0.64  56:  0.81
  57:  0.46  58:  0.82  59:  0.64  60:  0.77  61:  0.81  62:  0.60  63:  0.55  64:  0.60
  65:  0.50  66:  0.61  67:  0.56  68:  0.33  69:  0.35  70:  0.35  71:  0.74  72:  0.16
  73:  0.26  74:  0.18  75:  0.22  76:  0.18  77:  0.16  78:  0.22  79:  0.10  80:  0.22
  81:  0.12  82:  0.11  83:  0.13  84:  0.51  85:  0.37  86:  0.32  87:  0.32  88:  0.37
  89:  0.10  90:  0.13  91:  0.23  92:  0.09  93:  0.40  94:  0.30  95:  0.12  96:  0.26
  97:  0.29  98:  0.20  99:  0.21 100:  0.10 101:  0.17 102:  0.08 103:  0.17 104:  0.11
 105:  0.11 106:  0.10 107:  0.07 108:  0.08 109:  0.09 110:  0.07 111:  0.09 112:  0.06
 113:  0.05 114:  0.00 115:  0.01 116:  0.01 117:  0.06 118:  0.02 119:  0.10 120:  0.04
 121:  0.15 122:  0.59 123:  0.61 124:  0.72 125:  0.63 126:  0.66 127:  0.66 128:  0.75
 129:  0.60 130:  0.61 131:  0.63 132:  0.64 133:  0.20 134:  0.07 135:  0.02 136:  0.04
 137:  0.04 138:  0.02 139:  0.00 140:  0.00 141:  0.22 142:  0.05 143:  0.01 144:  0.06
 145:  0.13 146:  0.00 147:  0.05 148:  0.31 149:  0.13 150:  0.06 151:  0.14 152:  0.16
 153:  0.02 154:  0.07 155:  0.06 156:  0.11 157:  0.08 158:  0.09 159:  0.08 160:  0.06
 161:  0.06 162:  0.15 163:  0.05 164:  0.03 165:  0.00 166:  0.00 167:  0.01 168:  0.09
 169:  0.00 170:  0.02 171:  0.01
 recommended # of modes for mode following           4

           -------------------------------------------------
          | TOTAL ENERGY              -76.323188311664 Eh   |
          | TOTAL ENTHALPY            -75.810565707658 Eh   |
          | TOTAL FREE ENERGY         -75.905031656056 Eh   |
          | GRADIENT NORM               0.000048824655 Eh/α |
          | HOMO-LUMO GAP               2.169914122867 eV   |
           -------------------------------------------------

------------------------------------------------------------------------
 * finished run on 2019/06/17 at 22:58:28.151     
------------------------------------------------------------------------
 total:
 * wall-time:     0 d,  0 h,  0 min,  4.617 sec
 *  cpu-time:     0 d,  0 h,  0 min, 35.829 sec
 * ratio c/w:     7.761 speedup
 SCF:
 * wall-time:     0 d,  0 h,  0 min,  0.027 sec
 *  cpu-time:     0 d,  0 h,  0 min,  0.215 sec
 * ratio c/w:     7.902 speedup
 numerical hessian:
 * wall-time:     0 d,  0 h,  0 min,  4.450 sec
 *  cpu-time:     0 d,  0 h,  0 min, 34.693 sec
 * ratio c/w:     7.797 speedup

